<?xml version="1.0" encoding="UTF-8"?>

<!-- generated on Wed 04 Sep 2019 11:03:03 PM EDT by Eclipse SUMO GUI Version v1_1_0+0000-2147d155b1
<configuration xmlns:xsi="http://www.w3.org/2001/XMLSchema-instance" xsi:noNamespaceSchemaLocation="http://sumo.dlr.de/xsd/sumoConfiguration.xsd">

    <input>
        <net-file value="/home/hao/Documents/traci_test/randomnet4/randomnet.net.xml"/>
        <route-files value="/home/hao/Documents/traci_test/randomnet4/randomnet.rou.xml"/>
        <additional-files value="/home/hao/Documents/traci_test/randomnet4/random.add.xml"/>
    </input>

    <output>
        <tripinfo-output value="tripinfo.xml"/>
    </output>

    <time>
        <begin value="0"/>
    </time>

    <processing>
        <max-num-vehicles value="16200"/>
        <time-to-teleport value="-1"/>
    </processing>

    <traci_server>
        <remote-port value="55749"/>
    </traci_server>

</configuration>
-->

<tripinfos xmlns:xsi="http://www.w3.org/2001/XMLSchema-instance" xsi:noNamespaceSchemaLocation="http://sumo.dlr.de/xsd/tripinfo_file.xsd">
    <tripinfo id="53.0" depart="1.00" departLane="E1D1_0" departPos="5.10" departSpeed="0.00" departDelay="0.00" arrival="80.00" arrivalLane="D1D2_0" arrivalPos="385.60" arrivalSpeed="11.31" duration="79.00" routeLength="775.13" waitingTime="7.00" waitingCount="1" stopTime="0.00" timeLoss="16.57" rerouteNo="0" devices="tripinfo_53.0 routing_53.0" vType="DEFAULT_VEHTYPE" speedFactor="0.91" vaporized=""/>
    <tripinfo id="53.1" depart="4.00" departLane="E1D1_0" departPos="5.10" departSpeed="0.00" departDelay="2.00" arrival="82.00" arrivalLane="D1D2_0" arrivalPos="385.60" arrivalSpeed="13.25" duration="78.00" routeLength="775.13" waitingTime="5.00" waitingCount="1" stopTime="0.00" timeLoss="18.81" rerouteNo="0" devices="tripinfo_53.1 routing_53.1" vType="DEFAULT_VEHTYPE" speedFactor="0.97" vaporized=""/>
    <tripinfo id="53.2" depart="8.00" departLane="E1D1_0" departPos="5.10" departSpeed="0.00" departDelay="0.00" arrival="83.00" arrivalLane="D1D2_0" arrivalPos="385.60" arrivalSpeed="15.49" duration="75.00" routeLength="775.13" waitingTime="5.00" waitingCount="1" stopTime="0.00" timeLoss="24.97" rerouteNo="0" devices="tripinfo_53.2 routing_53.2" vType="DEFAULT_VEHTYPE" speedFactor="1.14" vaporized=""/>
    <tripinfo id="53.3" depart="11.00" departLane="E1D1_0" departPos="5.10" departSpeed="0.00" departDelay="1.00" arrival="85.00" arrivalLane="D1D2_0" arrivalPos="385.60" arrivalSpeed="15.76" duration="74.00" routeLength="775.13" waitingTime="5.00" waitingCount="1" stopTime="0.00" timeLoss="26.75" rerouteNo="0" devices="tripinfo_53.3 routing_53.3" vType="DEFAULT_VEHTYPE" speedFactor="1.20" vaporized=""/>
    <tripinfo id="53.4" depart="14.00" departLane="E1D1_0" departPos="5.10" departSpeed="0.00" departDelay="3.00" arrival="87.00" arrivalLane="D1D2_0" arrivalPos="385.60" arrivalSpeed="14.55" duration="73.00" routeLength="775.13" waitingTime="3.00" waitingCount="1" stopTime="0.00" timeLoss="21.52" rerouteNo="0" devices="tripinfo_53.4 routing_53.4" vType="DEFAULT_VEHTYPE" speedFactor="1.12" vaporized=""/>
    <tripinfo id="53.5" depart="17.00" departLane="E1D1_0" departPos="5.10" departSpeed="0.00" departDelay="4.00" arrival="89.00" arrivalLane="D1D2_0" arrivalPos="385.60" arrivalSpeed="12.96" duration="72.00" routeLength="775.13" waitingTime="0.00" waitingCount="0" stopTime="0.00" timeLoss="15.42" rerouteNo="0" devices="tripinfo_53.5 routing_53.5" vType="DEFAULT_VEHTYPE" speedFactor="1.00" vaporized=""/>
    <tripinfo id="53.6" depart="20.00" departLane="E1D1_0" departPos="5.10" departSpeed="0.00" departDelay="5.00" arrival="91.00" arrivalLane="D1D2_0" arrivalPos="385.60" arrivalSpeed="15.63" duration="71.00" routeLength="775.13" waitingTime="0.00" waitingCount="0" stopTime="0.00" timeLoss="23.75" rerouteNo="0" devices="tripinfo_53.6 routing_53.6" vType="DEFAULT_VEHTYPE" speedFactor="1.21" vaporized=""/>
    <tripinfo id="53.7" depart="23.00" departLane="E1D1_0" departPos="5.10" departSpeed="0.00" departDelay="5.00" arrival="97.00" arrivalLane="D1D2_0" arrivalPos="385.60" arrivalSpeed="11.95" duration="74.00" routeLength="775.13" waitingTime="0.00" waitingCount="0" stopTime="0.00" timeLoss="11.32" rerouteNo="0" devices="tripinfo_53.7 routing_53.7" vType="DEFAULT_VEHTYPE" speedFactor="0.90" vaporized=""/>
    <tripinfo id="53.8" depart="26.00" departLane="E1D1_0" departPos="5.10" departSpeed="0.00" departDelay="7.00" arrival="99.00" arrivalLane="D1D2_0" arrivalPos="385.60" arrivalSpeed="14.76" duration="73.00" routeLength="775.13" waitingTime="0.00" waitingCount="0" stopTime="0.00" timeLoss="24.52" rerouteNo="0" devices="tripinfo_53.8 routing_53.8" vType="DEFAULT_VEHTYPE" speedFactor="1.19" vaporized=""/>
    <tripinfo id="53.9" depart="29.00" departLane="E1D1_0" departPos="5.10" departSpeed="0.00" departDelay="8.00" arrival="101.00" arrivalLane="D1D2_0" arrivalPos="385.60" arrivalSpeed="13.43" duration="72.00" routeLength="775.13" waitingTime="0.00" waitingCount="0" stopTime="0.00" timeLoss="14.33" rerouteNo="0" devices="tripinfo_53.9 routing_53.9" vType="DEFAULT_VEHTYPE" speedFactor="0.99" vaporized=""/>
    <tripinfo id="53.10" depart="32.00" departLane="E1D1_0" departPos="5.10" departSpeed="0.00" departDelay="10.00" arrival="102.00" arrivalLane="D1D2_0" arrivalPos="385.60" arrivalSpeed="13.10" duration="70.00" routeLength="775.13" waitingTime="0.00" waitingCount="0" stopTime="0.00" timeLoss="14.92" rerouteNo="0" devices="tripinfo_53.10 routing_53.10" vType="DEFAULT_VEHTYPE" speedFactor="1.03" vaporized=""/>
    <tripinfo id="53.11" depart="35.00" departLane="E1D1_0" departPos="5.10" departSpeed="0.00" departDelay="12.00" arrival="109.00" arrivalLane="D1D2_0" arrivalPos="385.60" arrivalSpeed="11.21" duration="74.00" routeLength="775.13" waitingTime="0.00" waitingCount="0" stopTime="0.00" timeLoss="8.52" rerouteNo="0" devices="tripinfo_53.11 routing_53.11" vType="DEFAULT_VEHTYPE" speedFactor="0.87" vaporized=""/>
    <tripinfo id="19.0" depart="3.00" departLane="E4F4_0" departPos="5.10" departSpeed="0.00" departDelay="0.00" arrival="114.00" arrivalLane="E4E5_0" arrivalPos="385.60" arrivalSpeed="12.69" duration="111.00" routeLength="1165.41" waitingTime="6.00" waitingCount="1" stopTime="0.00" timeLoss="19.16" rerouteNo="1" devices="tripinfo_19.0 routing_19.0" vType="DEFAULT_VEHTYPE" speedFactor="0.94" vaporized=""/>
    <tripinfo id="19.1" depart="6.00" departLane="E4F4_0" departPos="5.10" departSpeed="0.00" departDelay="0.00" arrival="116.00" arrivalLane="E4E5_0" arrivalPos="385.60" arrivalSpeed="14.16" duration="110.00" routeLength="1165.41" waitingTime="4.00" waitingCount="1" stopTime="0.00" timeLoss="29.52" rerouteNo="1" devices="tripinfo_19.1 routing_19.1" vType="DEFAULT_VEHTYPE" speedFactor="1.07" vaporized=""/>
    <tripinfo id="19.2" depart="9.00" departLane="E4F4_0" departPos="5.10" departSpeed="0.00" departDelay="2.00" arrival="117.00" arrivalLane="E4E5_0" arrivalPos="385.60" arrivalSpeed="13.11" duration="108.00" routeLength="1165.41" waitingTime="3.00" waitingCount="1" stopTime="0.00" timeLoss="24.16" rerouteNo="1" devices="tripinfo_19.2 routing_19.2" vType="DEFAULT_VEHTYPE" speedFactor="1.02" vaporized=""/>
    <tripinfo id="53.12" depart="38.00" departLane="E1D1_0" departPos="5.10" departSpeed="0.00" departDelay="14.00" arrival="119.00" arrivalLane="D1D2_0" arrivalPos="385.60" arrivalSpeed="10.78" duration="81.00" routeLength="775.13" waitingTime="0.00" waitingCount="0" stopTime="0.00" timeLoss="8.44" rerouteNo="0" devices="tripinfo_53.12 routing_53.12" vType="DEFAULT_VEHTYPE" speedFactor="0.79" vaporized=""/>
    <tripinfo id="53.13" depart="41.00" departLane="E1D1_0" departPos="5.10" departSpeed="0.00" departDelay="15.00" arrival="121.00" arrivalLane="D1D2_0" arrivalPos="385.60" arrivalSpeed="13.33" duration="80.00" routeLength="775.13" waitingTime="0.00" waitingCount="0" stopTime="0.00" timeLoss="27.94" rerouteNo="0" devices="tripinfo_53.13 routing_53.13" vType="DEFAULT_VEHTYPE" speedFactor="1.09" vaporized=""/>
    <tripinfo id="53.14" depart="44.00" departLane="E1D1_0" departPos="5.10" departSpeed="0.00" departDelay="17.00" arrival="123.00" arrivalLane="D1D2_0" arrivalPos="385.60" arrivalSpeed="14.28" duration="79.00" routeLength="775.13" waitingTime="0.00" waitingCount="0" stopTime="0.00" timeLoss="25.70" rerouteNo="0" devices="tripinfo_53.14 routing_53.14" vType="DEFAULT_VEHTYPE" speedFactor="1.08" vaporized=""/>
    <tripinfo id="53.15" depart="47.00" departLane="E1D1_0" departPos="5.10" departSpeed="0.00" departDelay="19.00" arrival="124.00" arrivalLane="D1D2_0" arrivalPos="385.60" arrivalSpeed="13.20" duration="77.00" routeLength="775.13" waitingTime="0.00" waitingCount="0" stopTime="0.00" timeLoss="20.79" rerouteNo="0" devices="tripinfo_53.15 routing_53.15" vType="DEFAULT_VEHTYPE" speedFactor="1.00" vaporized=""/>
    <tripinfo id="40.0" depart="0.00" departLane="A2B2_0" departPos="5.10" departSpeed="0.00" departDelay="0.00" arrival="153.00" arrivalLane="B4B5_0" arrivalPos="385.60" arrivalSpeed="13.19" duration="153.00" routeLength="1580.29" waitingTime="19.00" waitingCount="2" stopTime="0.00" timeLoss="39.49" rerouteNo="1" devices="tripinfo_40.0 routing_40.0" vType="DEFAULT_VEHTYPE" speedFactor="1.01" vaporized=""/>
    <tripinfo id="40.1" depart="3.00" departLane="A2B2_0" departPos="5.10" departSpeed="0.00" departDelay="1.00" arrival="161.00" arrivalLane="B4B5_0" arrivalPos="385.60" arrivalSpeed="11.93" duration="158.00" routeLength="1580.29" waitingTime="13.00" waitingCount="2" stopTime="0.00" timeLoss="33.00" rerouteNo="1" devices="tripinfo_40.1 routing_40.1" vType="DEFAULT_VEHTYPE" speedFactor="0.92" vaporized=""/>
    <tripinfo id="40.2" depart="6.00" departLane="A2B2_0" departPos="5.10" departSpeed="0.00" departDelay="3.00" arrival="162.00" arrivalLane="B4B5_0" arrivalPos="385.60" arrivalSpeed="13.14" duration="156.00" routeLength="1580.29" waitingTime="12.00" waitingCount="2" stopTime="0.00" timeLoss="45.65" rerouteNo="1" devices="tripinfo_40.2 routing_40.2" vType="DEFAULT_VEHTYPE" speedFactor="1.04" vaporized=""/>
    <tripinfo id="53.16" depart="50.00" departLane="E1D1_0" departPos="5.10" departSpeed="0.00" departDelay="21.00" arrival="163.00" arrivalLane="D1D2_0" arrivalPos="385.60" arrivalSpeed="14.97" duration="113.00" routeLength="775.13" waitingTime="44.00" waitingCount="1" stopTime="0.00" timeLoss="62.94" rerouteNo="0" devices="tripinfo_53.16 routing_53.16" vType="DEFAULT_VEHTYPE" speedFactor="1.13" vaporized=""/>
    <tripinfo id="60.0" depart="0.00" departLane="D2C2_0" departPos="5.10" departSpeed="0.00" departDelay="0.00" arrival="163.00" arrivalLane="B0A0_0" arrivalPos="389.60" arrivalSpeed="15.29" duration="163.00" routeLength="1978.92" waitingTime="17.00" waitingCount="2" stopTime="0.00" timeLoss="41.09" rerouteNo="1" devices="tripinfo_60.0 routing_60.0" vType="DEFAULT_VEHTYPE" speedFactor="1.18" vaporized=""/>
    <tripinfo id="40.3" depart="9.00" departLane="A2B2_0" departPos="5.10" departSpeed="0.00" departDelay="2.00" arrival="164.00" arrivalLane="B4B5_0" arrivalPos="385.60" arrivalSpeed="12.63" duration="155.00" routeLength="1580.29" waitingTime="7.00" waitingCount="2" stopTime="0.00" timeLoss="35.93" rerouteNo="1" devices="tripinfo_40.3 routing_40.3" vType="DEFAULT_VEHTYPE" speedFactor="0.96" vaporized=""/>
    <tripinfo id="53.17" depart="53.00" departLane="E1D1_0" departPos="5.10" departSpeed="0.00" departDelay="23.00" arrival="173.00" arrivalLane="D1D2_0" arrivalPos="385.60" arrivalSpeed="11.63" duration="120.00" routeLength="775.13" waitingTime="44.00" waitingCount="1" stopTime="0.00" timeLoss="57.24" rerouteNo="0" devices="tripinfo_53.17 routing_53.17" vType="DEFAULT_VEHTYPE" speedFactor="0.91" vaporized=""/>
    <tripinfo id="60.1" depart="3.00" departLane="D2C2_0" departPos="5.10" departSpeed="0.00" departDelay="2.00" arrival="173.00" arrivalLane="B0A0_0" arrivalPos="389.60" arrivalSpeed="13.43" duration="170.00" routeLength="1978.92" waitingTime="9.00" waitingCount="1" stopTime="0.00" timeLoss="28.98" rerouteNo="1" devices="tripinfo_60.1 routing_60.1" vType="DEFAULT_VEHTYPE" speedFactor="1.02" vaporized=""/>
    <tripinfo id="53.18" depart="56.00" departLane="E1D1_0" departPos="5.10" departSpeed="0.00" departDelay="24.00" arrival="175.00" arrivalLane="D1D2_0" arrivalPos="385.60" arrivalSpeed="13.42" duration="119.00" routeLength="775.13" waitingTime="42.00" waitingCount="1" stopTime="0.00" timeLoss="61.49" rerouteNo="0" devices="tripinfo_53.18 routing_53.18" vType="DEFAULT_VEHTYPE" speedFactor="0.99" vaporized=""/>
    <tripinfo id="60.2" depart="6.00" departLane="D2C2_0" departPos="5.10" departSpeed="0.00" departDelay="4.00" arrival="175.00" arrivalLane="B0A0_0" arrivalPos="389.60" arrivalSpeed="13.96" duration="169.00" routeLength="1978.92" waitingTime="7.00" waitingCount="1" stopTime="0.00" timeLoss="29.11" rerouteNo="1" devices="tripinfo_60.2 routing_60.2" vType="DEFAULT_VEHTYPE" speedFactor="1.03" vaporized=""/>
    <tripinfo id="60.3" depart="9.00" departLane="D2C2_0" departPos="5.10" departSpeed="0.00" departDelay="6.00" arrival="177.00" arrivalLane="B0A0_0" arrivalPos="389.60" arrivalSpeed="15.83" duration="168.00" routeLength="1978.92" waitingTime="5.00" waitingCount="1" stopTime="0.00" timeLoss="41.27" rerouteNo="1" devices="tripinfo_60.3 routing_60.3" vType="DEFAULT_VEHTYPE" speedFactor="1.14" vaporized=""/>
    <tripinfo id="53.19" depart="59.00" departLane="E1D1_0" departPos="5.10" departSpeed="0.00" departDelay="26.00" arrival="178.00" arrivalLane="D1D2_0" arrivalPos="385.60" arrivalSpeed="12.24" duration="119.00" routeLength="775.13" waitingTime="42.00" waitingCount="1" stopTime="0.00" timeLoss="57.99" rerouteNo="0" devices="tripinfo_53.19 routing_53.19" vType="DEFAULT_VEHTYPE" speedFactor="0.94" vaporized=""/>
    <tripinfo id="53.20" depart="62.00" departLane="E1D1_0" departPos="5.10" departSpeed="0.00" departDelay="27.00" arrival="179.00" arrivalLane="D1D2_0" arrivalPos="385.60" arrivalSpeed="13.94" duration="117.00" routeLength="775.13" waitingTime="41.00" waitingCount="1" stopTime="0.00" timeLoss="60.75" rerouteNo="0" devices="tripinfo_53.20 routing_53.20" vType="DEFAULT_VEHTYPE" speedFactor="1.01" vaporized=""/>
    <tripinfo id="53.21" depart="65.00" departLane="E1D1_0" departPos="5.10" departSpeed="0.00" departDelay="25.00" arrival="181.00" arrivalLane="D1D2_0" arrivalPos="385.60" arrivalSpeed="14.96" duration="116.00" routeLength="775.13" waitingTime="42.00" waitingCount="1" stopTime="0.00" timeLoss="63.90" rerouteNo="0" devices="tripinfo_53.21 routing_53.21" vType="DEFAULT_VEHTYPE" speedFactor="1.10" vaporized=""/>
    <tripinfo id="53.22" depart="68.00" departLane="E1D1_0" departPos="5.10" departSpeed="0.00" departDelay="27.00" arrival="182.00" arrivalLane="D1D2_0" arrivalPos="385.60" arrivalSpeed="15.50" duration="114.00" routeLength="775.13" waitingTime="40.00" waitingCount="1" stopTime="0.00" timeLoss="63.16" rerouteNo="0" devices="tripinfo_53.22 routing_53.22" vType="DEFAULT_VEHTYPE" speedFactor="1.12" vaporized=""/>
    <tripinfo id="53.23" depart="71.00" departLane="E1D1_0" departPos="5.10" departSpeed="0.00" departDelay="28.00" arrival="184.00" arrivalLane="D1D2_0" arrivalPos="385.60" arrivalSpeed="15.14" duration="113.00" routeLength="775.13" waitingTime="40.00" waitingCount="1" stopTime="0.00" timeLoss="61.52" rerouteNo="0" devices="tripinfo_53.23 routing_53.23" vType="DEFAULT_VEHTYPE" speedFactor="1.10" vaporized=""/>
    <tripinfo id="53.24" depart="74.00" departLane="E1D1_0" departPos="5.10" departSpeed="0.00" departDelay="29.00" arrival="190.00" arrivalLane="D1D2_0" arrivalPos="385.60" arrivalSpeed="12.92" duration="116.00" routeLength="775.13" waitingTime="38.00" waitingCount="1" stopTime="0.00" timeLoss="55.42" rerouteNo="0" devices="tripinfo_53.24 routing_53.24" vType="DEFAULT_VEHTYPE" speedFactor="0.94" vaporized=""/>
    <tripinfo id="53.25" depart="77.00" departLane="E1D1_0" departPos="5.10" departSpeed="0.00" departDelay="29.00" arrival="192.00" arrivalLane="D1D2_0" arrivalPos="385.60" arrivalSpeed="12.95" duration="115.00" routeLength="775.13" waitingTime="37.00" waitingCount="1" stopTime="0.00" timeLoss="56.93" rerouteNo="0" devices="tripinfo_53.25 routing_53.25" vType="DEFAULT_VEHTYPE" speedFactor="0.98" vaporized=""/>
    <tripinfo id="53.26" depart="80.00" departLane="E1D1_0" departPos="5.10" departSpeed="0.00" departDelay="30.00" arrival="193.00" arrivalLane="D1D2_0" arrivalPos="385.60" arrivalSpeed="13.77" duration="113.00" routeLength="775.13" waitingTime="36.00" waitingCount="1" stopTime="0.00" timeLoss="58.63" rerouteNo="0" devices="tripinfo_53.26 routing_53.26" vType="DEFAULT_VEHTYPE" speedFactor="1.05" vaporized=""/>
    <tripinfo id="22.0" depart="0.00" departLane="F3F2_0" departPos="5.10" departSpeed="0.00" departDelay="0.00" arrival="193.00" arrivalLane="E4D4_0" arrivalPos="385.60" arrivalSpeed="13.56" duration="193.00" routeLength="1970.57" waitingTime="33.00" waitingCount="2" stopTime="0.00" timeLoss="53.11" rerouteNo="1" devices="tripinfo_22.0 routing_22.0" vType="DEFAULT_VEHTYPE" speedFactor="1.03" vaporized=""/>
    <tripinfo id="53.27" depart="83.00" departLane="E1D1_0" departPos="5.10" departSpeed="0.00" departDelay="29.00" arrival="195.00" arrivalLane="D1D2_0" arrivalPos="385.60" arrivalSpeed="13.21" duration="112.00" routeLength="775.13" waitingTime="35.00" waitingCount="1" stopTime="0.00" timeLoss="55.07" rerouteNo="0" devices="tripinfo_53.27 routing_53.27" vType="DEFAULT_VEHTYPE" speedFactor="0.99" vaporized=""/>
    <tripinfo id="53.28" depart="86.00" departLane="E1D1_0" departPos="5.10" departSpeed="0.00" departDelay="31.00" arrival="198.00" arrivalLane="D1D2_0" arrivalPos="385.60" arrivalSpeed="12.89" duration="112.00" routeLength="775.13" waitingTime="33.00" waitingCount="1" stopTime="0.00" timeLoss="55.14" rerouteNo="0" devices="tripinfo_53.28 routing_53.28" vType="DEFAULT_VEHTYPE" speedFactor="1.01" vaporized=""/>
    <tripinfo id="53.29" depart="89.00" departLane="E1D1_0" departPos="5.10" departSpeed="0.00" departDelay="32.00" arrival="203.00" arrivalLane="D1D2_0" arrivalPos="385.60" arrivalSpeed="13.00" duration="114.00" routeLength="775.13" waitingTime="30.00" waitingCount="1" stopTime="0.00" timeLoss="53.31" rerouteNo="0" devices="tripinfo_53.29 routing_53.29" vType="DEFAULT_VEHTYPE" speedFactor="0.95" vaporized=""/>
    <tripinfo id="53.30" depart="92.00" departLane="E1D1_0" departPos="5.10" departSpeed="0.00" departDelay="34.00" arrival="204.00" arrivalLane="D1D2_0" arrivalPos="385.60" arrivalSpeed="15.68" duration="112.00" routeLength="775.13" waitingTime="29.00" waitingCount="1" stopTime="0.00" timeLoss="61.95" rerouteNo="0" devices="tripinfo_53.30 routing_53.30" vType="DEFAULT_VEHTYPE" speedFactor="1.13" vaporized=""/>
    <tripinfo id="53.31" depart="95.00" departLane="E1D1_0" departPos="5.10" departSpeed="0.00" departDelay="36.00" arrival="206.00" arrivalLane="D1D2_0" arrivalPos="385.60" arrivalSpeed="13.99" duration="111.00" routeLength="775.13" waitingTime="28.00" waitingCount="1" stopTime="0.00" timeLoss="54.87" rerouteNo="0" devices="tripinfo_53.31 routing_53.31" vType="DEFAULT_VEHTYPE" speedFactor="1.01" vaporized=""/>
    <tripinfo id="53.32" depart="98.00" departLane="E1D1_0" departPos="5.10" departSpeed="0.00" departDelay="34.00" arrival="208.00" arrivalLane="D1D2_0" arrivalPos="385.60" arrivalSpeed="15.64" duration="110.00" routeLength="775.13" waitingTime="27.00" waitingCount="1" stopTime="0.00" timeLoss="60.06" rerouteNo="0" devices="tripinfo_53.32 routing_53.32" vType="DEFAULT_VEHTYPE" speedFactor="1.16" vaporized=""/>
    <tripinfo id="19.3" depart="12.00" departLane="E4F4_0" departPos="5.10" departSpeed="0.00" departDelay="2.00" arrival="209.00" arrivalLane="E4E5_0" arrivalPos="385.60" arrivalSpeed="12.70" duration="197.00" routeLength="1165.41" waitingTime="74.00" waitingCount="3" stopTime="0.00" timeLoss="111.75" rerouteNo="1" devices="tripinfo_19.3 routing_19.3" vType="DEFAULT_VEHTYPE" speedFactor="1.00" vaporized=""/>
    <tripinfo id="55.0" depart="0.00" departLane="C8B8_0" departPos="5.10" departSpeed="0.00" departDelay="0.00" arrival="209.00" arrivalLane="D7C7_0" arrivalPos="385.60" arrivalSpeed="12.45" duration="209.00" routeLength="1970.36" waitingTime="22.00" waitingCount="3" stopTime="0.00" timeLoss="56.88" rerouteNo="1" devices="tripinfo_55.0 routing_55.0" vType="DEFAULT_VEHTYPE" speedFactor="0.95" vaporized=""/>
    <tripinfo id="40.4" depart="12.00" departLane="A2B2_0" departPos="5.10" departSpeed="0.00" departDelay="3.00" arrival="210.00" arrivalLane="B4B5_0" arrivalPos="385.60" arrivalSpeed="14.53" duration="198.00" routeLength="1580.29" waitingTime="49.00" waitingCount="3" stopTime="0.00" timeLoss="96.11" rerouteNo="1" devices="tripinfo_40.4 routing_40.4" vType="DEFAULT_VEHTYPE" speedFactor="1.13" vaporized=""/>
    <tripinfo id="19.4" depart="15.00" departLane="E4F4_0" departPos="5.10" departSpeed="0.00" departDelay="2.00" arrival="211.00" arrivalLane="E4E5_0" arrivalPos="385.60" arrivalSpeed="14.72" duration="196.00" routeLength="1165.41" waitingTime="71.00" waitingCount="3" stopTime="0.00" timeLoss="119.02" rerouteNo="1" devices="tripinfo_19.4 routing_19.4" vType="DEFAULT_VEHTYPE" speedFactor="1.12" vaporized=""/>
    <tripinfo id="36.0" depart="4.00" departLane="A0A1_0" departPos="5.10" departSpeed="0.00" departDelay="2.00" arrival="211.00" arrivalLane="D1D2_0" arrivalPos="385.60" arrivalSpeed="13.49" duration="207.00" routeLength="1978.92" waitingTime="38.00" waitingCount="2" stopTime="0.00" timeLoss="64.73" rerouteNo="1" devices="tripinfo_36.0 routing_36.0" vType="DEFAULT_VEHTYPE" speedFactor="1.02" vaporized=""/>
    <tripinfo id="19.5" depart="18.00" departLane="E4F4_0" departPos="5.10" departSpeed="0.00" departDelay="3.00" arrival="213.00" arrivalLane="E4E5_0" arrivalPos="385.60" arrivalSpeed="13.51" duration="195.00" routeLength="1165.41" waitingTime="68.00" waitingCount="2" stopTime="0.00" timeLoss="111.89" rerouteNo="1" devices="tripinfo_19.5 routing_19.5" vType="DEFAULT_VEHTYPE" speedFactor="1.03" vaporized=""/>
    <tripinfo id="19.6" depart="21.00" departLane="E4F4_0" departPos="5.10" departSpeed="0.00" departDelay="4.00" arrival="215.00" arrivalLane="E4E5_0" arrivalPos="385.60" arrivalSpeed="14.05" duration="194.00" routeLength="1165.41" waitingTime="65.00" waitingCount="2" stopTime="0.00" timeLoss="108.78" rerouteNo="1" devices="tripinfo_19.6 routing_19.6" vType="DEFAULT_VEHTYPE" speedFactor="1.02" vaporized=""/>
    <tripinfo id="40.5" depart="15.00" departLane="A2B2_0" departPos="5.10" departSpeed="0.00" departDelay="5.00" arrival="215.00" arrivalLane="B4B5_0" arrivalPos="385.60" arrivalSpeed="12.52" duration="200.00" routeLength="1580.29" waitingTime="45.00" waitingCount="2" stopTime="0.00" timeLoss="82.21" rerouteNo="1" devices="tripinfo_40.5 routing_40.5" vType="DEFAULT_VEHTYPE" speedFactor="0.98" vaporized=""/>
    <tripinfo id="19.7" depart="24.00" departLane="E4F4_0" departPos="5.10" departSpeed="0.00" departDelay="0.00" arrival="216.00" arrivalLane="E4E5_0" arrivalPos="385.60" arrivalSpeed="14.73" duration="192.00" routeLength="1165.41" waitingTime="64.00" waitingCount="2" stopTime="0.00" timeLoss="115.40" rerouteNo="1" devices="tripinfo_19.7 routing_19.7" vType="DEFAULT_VEHTYPE" speedFactor="1.11" vaporized=""/>
    <tripinfo id="40.6" depart="19.00" departLane="A2B2_0" departPos="5.10" departSpeed="0.00" departDelay="8.00" arrival="217.00" arrivalLane="B4B5_0" arrivalPos="385.60" arrivalSpeed="13.92" duration="198.00" routeLength="1580.29" waitingTime="45.00" waitingCount="2" stopTime="0.00" timeLoss="90.49" rerouteNo="1" devices="tripinfo_40.6 routing_40.6" vType="DEFAULT_VEHTYPE" speedFactor="1.07" vaporized=""/>
    <tripinfo id="19.8" depart="27.00" departLane="E4F4_0" departPos="5.10" departSpeed="0.00" departDelay="0.00" arrival="218.00" arrivalLane="E4E5_0" arrivalPos="385.60" arrivalSpeed="14.22" duration="191.00" routeLength="1165.41" waitingTime="61.00" waitingCount="2" stopTime="0.00" timeLoss="112.79" rerouteNo="1" devices="tripinfo_19.8 routing_19.8" vType="DEFAULT_VEHTYPE" speedFactor="1.11" vaporized=""/>
    <tripinfo id="19.9" depart="30.00" departLane="E4F4_0" departPos="5.10" departSpeed="0.00" departDelay="2.00" arrival="220.00" arrivalLane="E4E5_0" arrivalPos="385.60" arrivalSpeed="14.69" duration="190.00" routeLength="1165.41" waitingTime="60.00" waitingCount="2" stopTime="0.00" timeLoss="111.83" rerouteNo="1" devices="tripinfo_19.9 routing_19.9" vType="DEFAULT_VEHTYPE" speedFactor="1.11" vaporized=""/>
    <tripinfo id="40.7" depart="22.00" departLane="A2B2_0" departPos="5.10" departSpeed="0.00" departDelay="9.00" arrival="220.00" arrivalLane="B4B5_0" arrivalPos="385.60" arrivalSpeed="12.10" duration="198.00" routeLength="1580.29" waitingTime="43.00" waitingCount="1" stopTime="0.00" timeLoss="73.46" rerouteNo="1" devices="tripinfo_40.7 routing_40.7" vType="DEFAULT_VEHTYPE" speedFactor="0.92" vaporized=""/>
    <tripinfo id="40.8" depart="25.00" departLane="A2B2_0" departPos="5.10" departSpeed="0.00" departDelay="10.00" arrival="222.00" arrivalLane="B4B5_0" arrivalPos="385.60" arrivalSpeed="13.57" duration="197.00" routeLength="1580.29" waitingTime="41.00" waitingCount="1" stopTime="0.00" timeLoss="81.52" rerouteNo="1" devices="tripinfo_40.8 routing_40.8" vType="DEFAULT_VEHTYPE" speedFactor="0.99" vaporized=""/>
    <tripinfo id="19.10" depart="33.00" departLane="E4F4_0" departPos="5.10" departSpeed="0.00" departDelay="2.00" arrival="223.00" arrivalLane="E4E5_0" arrivalPos="385.60" arrivalSpeed="10.86" duration="190.00" routeLength="1165.41" waitingTime="47.00" waitingCount="2" stopTime="0.00" timeLoss="82.57" rerouteNo="1" devices="tripinfo_19.10 routing_19.10" vType="DEFAULT_VEHTYPE" speedFactor="0.80" vaporized=""/>
    <tripinfo id="40.9" depart="28.00" departLane="A2B2_0" departPos="5.10" departSpeed="0.00" departDelay="11.00" arrival="224.00" arrivalLane="B4B5_0" arrivalPos="385.60" arrivalSpeed="15.31" duration="196.00" routeLength="1580.29" waitingTime="40.00" waitingCount="1" stopTime="0.00" timeLoss="93.09" rerouteNo="1" devices="tripinfo_40.9 routing_40.9" vType="DEFAULT_VEHTYPE" speedFactor="1.12" vaporized=""/>
    <tripinfo id="19.11" depart="37.00" departLane="E4F4_0" departPos="5.10" departSpeed="0.00" departDelay="4.00" arrival="225.00" arrivalLane="E4E5_0" arrivalPos="385.60" arrivalSpeed="13.03" duration="188.00" routeLength="1165.41" waitingTime="44.00" waitingCount="2" stopTime="0.00" timeLoss="102.95" rerouteNo="1" devices="tripinfo_19.11 routing_19.11" vType="DEFAULT_VEHTYPE" speedFactor="1.01" vaporized=""/>
    <tripinfo id="40.10" depart="36.00" departLane="A2B2_0" departPos="5.10" departSpeed="0.00" departDelay="18.00" arrival="225.00" arrivalLane="B4B5_0" arrivalPos="385.60" arrivalSpeed="13.20" duration="189.00" routeLength="1580.29" waitingTime="40.00" waitingCount="1" stopTime="0.00" timeLoss="76.43" rerouteNo="1" devices="tripinfo_40.10 routing_40.10" vType="DEFAULT_VEHTYPE" speedFactor="1.02" vaporized=""/>
    <tripinfo id="40.11" depart="39.00" departLane="A2B2_0" departPos="5.10" departSpeed="0.00" departDelay="19.00" arrival="227.00" arrivalLane="B4B5_0" arrivalPos="385.60" arrivalSpeed="15.07" duration="188.00" routeLength="1580.29" waitingTime="40.00" waitingCount="1" stopTime="0.00" timeLoss="83.69" rerouteNo="1" devices="tripinfo_40.11 routing_40.11" vType="DEFAULT_VEHTYPE" speedFactor="1.10" vaporized=""/>
    <tripinfo id="40.12" depart="43.00" departLane="A2B2_0" departPos="5.10" departSpeed="0.00" departDelay="22.00" arrival="229.00" arrivalLane="B4B5_0" arrivalPos="385.60" arrivalSpeed="13.76" duration="186.00" routeLength="1580.29" waitingTime="39.00" waitingCount="1" stopTime="0.00" timeLoss="72.07" rerouteNo="1" devices="tripinfo_40.12 routing_40.12" vType="DEFAULT_VEHTYPE" speedFactor="1.01" vaporized=""/>
    <tripinfo id="40.13" depart="46.00" departLane="A2B2_0" departPos="5.10" departSpeed="0.00" departDelay="24.00" arrival="232.00" arrivalLane="B4B5_0" arrivalPos="385.60" arrivalSpeed="12.65" duration="186.00" routeLength="1580.29" waitingTime="38.00" waitingCount="1" stopTime="0.00" timeLoss="63.70" rerouteNo="1" devices="tripinfo_40.13 routing_40.13" vType="DEFAULT_VEHTYPE" speedFactor="0.94" vaporized=""/>
    <tripinfo id="40.14" depart="49.00" departLane="A2B2_0" departPos="5.10" departSpeed="0.00" departDelay="25.00" arrival="233.00" arrivalLane="B4B5_0" arrivalPos="385.60" arrivalSpeed="13.19" duration="184.00" routeLength="1580.29" waitingTime="40.00" waitingCount="1" stopTime="0.00" timeLoss="71.40" rerouteNo="1" devices="tripinfo_40.14 routing_40.14" vType="DEFAULT_VEHTYPE" speedFactor="1.02" vaporized=""/>
    <tripinfo id="42.1" depart="3.00" departLane="G6G7_0" departPos="5.10" departSpeed="0.00" departDelay="2.00" arrival="255.00" arrivalLane="H9I9_0" arrivalPos="385.60" arrivalSpeed="14.98" duration="252.00" routeLength="1969.55" waitingTime="85.00" waitingCount="4" stopTime="0.00" timeLoss="119.25" rerouteNo="1" devices="tripinfo_42.1 routing_42.1" vType="DEFAULT_VEHTYPE" speedFactor="1.08" vaporized=""/>
    <tripinfo id="40.15" depart="52.00" departLane="A2B2_0" departPos="5.10" departSpeed="0.00" departDelay="25.00" arrival="256.00" arrivalLane="B4B5_0" arrivalPos="385.60" arrivalSpeed="11.10" duration="204.00" routeLength="1580.29" waitingTime="46.00" waitingCount="2" stopTime="0.00" timeLoss="65.24" rerouteNo="1" devices="tripinfo_40.15 routing_40.15" vType="DEFAULT_VEHTYPE" speedFactor="0.83" vaporized=""/>
    <tripinfo id="40.16" depart="55.00" departLane="A2B2_0" departPos="5.10" departSpeed="0.00" departDelay="27.00" arrival="257.00" arrivalLane="B4B5_0" arrivalPos="385.60" arrivalSpeed="12.65" duration="202.00" routeLength="1580.29" waitingTime="46.00" waitingCount="2" stopTime="0.00" timeLoss="95.46" rerouteNo="1" devices="tripinfo_40.16 routing_40.16" vType="DEFAULT_VEHTYPE" speedFactor="1.08" vaporized=""/>